 Gaussian 09, Revision D.01,
 Gaussian 09:  AM64L-G09RevD.01 24-Apr-2013

 ------------------------
 # B3lyp/3-21g nosym freq
 ------------------------

 99//99;

 Symbolic Z-matrix:
 Charge =  0 Multiplicity = 1

                          Input orientation:
 ---------------------------------------------------------------------
 Center     Atomic      Atomic             Coordinates (Angstroms)
 Number     Number       Type             X           Y           Z
 ---------------------------------------------------------------------
      1          6           0       -0.697670    0.126105    0.007869
      2          6           0        0.636858    0.401429    0.129048
      3          1           0       -1.585271    0.703640    0.182211
      4          1           0       -0.927128   -0.912082   -0.218158
      5          1           0        1.640604    0.386918   -0.250665
      6          1           0        0.932608   -0.706010    0.149695
 ---------------------------------------------------------------------

 SCF Done:  E(RB3LYP) =  -78.0409770886     A.U. after   13 cycles

 Alpha  occ. eigenvalues --  -10.14667 -10.13141  -0.77750  -0.61151  -0.46300
 Alpha  occ. eigenvalues --   -0.44116  -0.31195  -0.24112
 Alpha virt. eigenvalues --   -0.02518   0.09598   0.13292   0.18903   0.23896
 Alpha virt. eigenvalues --    0.36618   0.70083   0.73663   0.76832   0.79619
 Alpha virt. eigenvalues --    0.83734   0.91651   0.96420   1.04578   1.06790

 Mulliken charges:
               1
     1  C   -0.384435
     2  C   -0.401935
     3  H    0.193236
     4  H    0.193598
     5  H    0.245362
     6  H    0.154174
 Sum of Mulliken charges =   0.00000

 Dipole moment (field-independent basis, Debye):
    X=              0.2188    Y=             -0.9964    Z=             -0.4825  Tot=              1.1284
 Quadrupole moment (field-independent basis, Debye-Ang):
   XX=            -10.8277   YY=            -14.5670   ZZ=            -15.2040
   XY=             -0.6908   XZ=             -0.7627   YZ=              0.0512

  Exact polarizability:  31.454  -0.642  19.693   1.734   1.822   7.813
 Approx polarizability:  51.420   1.694  28.763   5.318   3.898   9.964

 ******    2 imaginary frequencies (negative Signs) ******

                      1                      2                      3
                      A                      A                      A
 Frequencies --   -644.7316              -377.0314               955.0230
 Red. masses --      1.2822                 1.1630                 1.2969
 Frc consts  --      0.3140                 0.0974                 0.6969
 IR Inten    --    127.1636                84.4652                54.9253

                      4                      5                      6
                      A                      A                      A
 Frequencies --   1069.4605              1131.4885              1443.1890
 Red. masses --      1.2612                 1.1046                 3.9553
 Frc consts  --      0.8499                 0.8332                 4.8537
 IR Inten    --      0.3960                 8.6750                 3.7841

                      7                      8                      9
                      A                      A                      A
 Frequencies --   1617.1555              1679.9080              2532.3744
 Red. masses --      1.1368                 1.0414                 1.0607
 Frc consts  --      1.7517                 1.7315                 4.0078
 IR Inten    --      2.3048                 2.1915               132.5894

                     10                     11                     12
                      A                      A                      A
 Frequencies --   3138.4810              3301.4325              3347.1436
 Red. masses --      1.0706                 1.0947                 1.1015
 Frc consts  --      6.2134                 7.0300                 7.2708
 IR Inten    --     17.2687                22.2274                37.6407

 - Thermochemistry -
 -------------------
 Temperature   298.150 Kelvin.  Pressure   1.00000 Atm.
 Atom     1 has atomic number  6 and mass  12.00000

 Molecular mass:    28.03130 amu.
 Principal axes and moments of inertia in atomic units:
                           1         2         3
     Eigenvalues --    10.53360  64.78357  73.83197
           X            0.99166  -0.12765  -0.01760
           Y            0.12355   0.98073  -0.15136
           Z            0.03658   0.14792   0.98832
 This molecule is an asymmetric top.
 Rotational symmetry number  1.
 Rotational temperatures (Kelvin)      8.22263     1.33697     1.17312
 Rotational constants (GHZ):         171.33192    27.85801    24.44390
    2 imaginary frequencies ignored.
 Zero-point vibrational energy     120916.5 (Joules/Mol)
                                   28.89973 (Kcal/Mol)
 Vibrational temperatures:   1374.06  1538.71  1627.96  2076.42  2326.72
          (Kelvin)           2417.01  3643.52  4515.57  4750.02  4815.79

 Zero-point correction=                           0.046055 (Hartree/Particle)
 Thermal correction to Energy=                    0.048993
 Thermal correction to Enthalpy=                  0.049937
 Thermal correction to Gibbs Free Energy=         0.023922
 Sum of electronic and zero-point Energies=            -77.994922
 Sum of electronic and thermal Energies=               -77.991984
 Sum of electronic and thermal Enthalpies=             -77.991040
 Sum of electronic and thermal Free Energies=          -78.017055

                     E (Thermal)             CV                S
                      KCal/Mol        Cal/Mol-Kelvin    Cal/Mol-Kelvin
 Total                   30.743              7.134             54.753
 Electronic               0.000              0.000              0.000
 Translational            0.889              2.981             35.927
 Rotational               0.889              2.981             18.561
 Vibrational             28.966              1.172              0.265

 Normal termination of Gaussian 09 at Wed Oct 11 07:01:37 2017.
