 Gaussian 09, Revision D.01,
 Gaussian 09:  AM64L-G09RevD.01 24-Apr-2013

 ------------------------
 # B3lyp/3-21g nosym freq
 ------------------------

 99//99;

 Symbolic Z-matrix:
 Charge =  0 Multiplicity = 1

                          Input orientation:
 ---------------------------------------------------------------------
 Center     Atomic      Atomic             Coordinates (Angstroms)
 Number     Number       Type             X           Y           Z
 ---------------------------------------------------------------------
      1          6           0       -0.021747    0.830014    0.064096
      2          7           0        0.115962    0.859867    1.516601
      3          7           0        1.150583    0.391975    2.104135
      4          6           0        2.186623   -0.245354    1.324929
      5          6           0       -0.820737   -0.012402   -0.587004
      6          1           0       -1.341018   -0.810756   -0.069813
      7          1           0       -0.983967    0.083622   -1.653866
      8          6           0        3.272742   -0.665846    1.973310
      9          1           0        3.345500   -0.522325    3.045778
     10          1           0        4.094903   -1.150800    1.460935
     11          1           0        2.044012   -0.370235    0.255125
     12          1           0        0.479091    1.655740   -0.438036
 ---------------------------------------------------------------------

 SCF Done:  E(RB3LYP) =  -263.945155647     A.U. after   15 cycles

 Alpha  occ. eigenvalues --  -14.31053 -14.30639 -10.16815 -10.16501 -10.14981
 Alpha  occ. eigenvalues --  -10.12856  -1.04227  -0.82618  -0.78338  -0.68312
 Alpha  occ. eigenvalues --   -0.61894  -0.54986  -0.52547  -0.47623  -0.46945
 Alpha  occ. eigenvalues --   -0.41556  -0.40379  -0.38467  -0.35892  -0.28294
 Alpha  occ. eigenvalues --   -0.27720  -0.21426
 Alpha virt. eigenvalues --   -0.07481   0.01198   0.04028   0.13401   0.13884
 Alpha virt. eigenvalues --    0.15173   0.15867   0.16977   0.19925   0.28113
 Alpha virt. eigenvalues --    0.31101   0.36090   0.37287   0.43336   0.63670

 Mulliken charges:
               1
     1  C   -0.062618
     2  N   -0.215289
     3  N   -0.238625
     4  C   -0.038705
     5  C   -0.374618
     6  H    0.203021
     7  H    0.194802
     8  C   -0.341985
     9  H    0.226367
    10  H    0.206250
    11  H    0.217451
    12  H    0.223949
 Sum of Mulliken charges =   0.00000

 Dipole moment (field-independent basis, Debye):
    X=              1.9412    Y=             -1.1180    Z=             -2.3458  Tot=              3.2436
 Quadrupole moment (field-independent basis, Debye-Ang):
   XX=            -29.3086   YY=            -36.3129   ZZ=            -40.6041
   XY=             -0.5144   XZ=              3.0142   YZ=             -3.7949

  Exact polarizability:  73.685  -9.437  35.000  25.751  -1.882  56.844
 Approx polarizability: 116.867 -20.568  56.368  38.400   0.233  84.671

 ******    1 imaginary frequencies (negative Signs) ******

                      1                      2                      3
                      A                      A                      A
 Frequencies --    -98.3628               136.5568               212.9374
 Red. masses --      2.1252                 2.3210                 2.5895
 Frc consts  --      0.0121                 0.0255                 0.0692
 IR Inten    --      0.8736                 0.1823                 4.0574

                      4                      5                      6
                      A                      A                      A
 Frequencies --    273.6406               369.2631               509.9192
 Red. masses --      2.6442                 2.5824                 2.3530
 Frc consts  --      0.1167                 0.2075                 0.3605
 IR Inten    --      2.2581                 1.5722                 1.5842

                      7                      8                      9
                      A                      A                      A
 Frequencies --    559.8521               746.6887               769.3572
 Red. masses --      2.5057                 3.1072                 2.3575
 Frc consts  --      0.4627                 1.0207                 0.8222
 IR Inten    --      8.4776                10.6226                 1.6821

                     10                     11                     12
                      A                      A                      A
 Frequencies --    802.9697               855.4385               947.5112
 Red. masses --      2.9455                 2.9851                 1.3926
 Frc consts  --      1.1189                 1.2870                 0.7366
 IR Inten    --      7.4882                10.2880                53.4879

                     13                     14                     15
                      A                      A                      A
 Frequencies --   1004.2182              1011.6274              1035.3725
 Red. masses --      1.1042                 1.3463                 1.1406
 Frc consts  --      0.6561                 0.8118                 0.7204
 IR Inten    --     32.9951                47.2858                13.6511

                     16                     17                     18
                      A                      A                      A
 Frequencies --   1091.3254              1128.6183              1317.3834
 Red. masses --      1.4297                 1.7940                 1.3222
 Frc consts  --      1.0033                 1.3464                 1.3520
 IR Inten    --      4.3741                10.4419                13.1765

                     19                     20                     21
                      A                      A                      A
 Frequencies --   1330.8275              1398.2263              1466.5681
 Red. masses --      1.2432                 9.0278                 1.2163
 Frc consts  --      1.2973                10.3989                 1.5413
 IR Inten    --      1.4994                11.5881                10.7258

                     22                     23                     24
                      A                      A                      A
 Frequencies --   1479.5535              1673.1787              1689.0272
 Red. masses --      1.2372                 3.8446                 4.0589
 Frc consts  --      1.5957                 6.3415                 6.8223
 IR Inten    --      1.1710                26.4502                 2.7595

                     25                     26                     27
                      A                      A                      A
 Frequencies --   3148.9846              3164.3132              3173.8786
 Red. masses --      1.0818                 1.0727                 1.0662
 Frc consts  --      6.3206                 6.3286                 6.3277
 IR Inten    --      4.6249                 3.2705                 2.3453

                     28                     29                     30
                      A                      A                      A
 Frequencies --   3179.8629              3256.7615              3267.5234
 Red. masses --      1.0769                 1.1153                 1.1160
 Frc consts  --      6.4157                 6.9697                 7.0201
 IR Inten    --      4.3086                 6.1665                 2.5119

 - Thermochemistry -
 -------------------
 Temperature   298.150 Kelvin.  Pressure   1.00000 Atm.
 Atom     1 has atomic number  6 and mass  12.00000

 Molecular mass:    82.05310 amu.
 Principal axes and moments of inertia in atomic units:
                           1         2         3
     Eigenvalues --   188.63368 867.54256 992.84720
           X            0.83129  -0.33761   0.44155
           Y           -0.20835   0.54721   0.81065
           Z            0.51530   0.76588  -0.38455
 This molecule is an asymmetric top.
 Rotational symmetry number  1.
 Rotational temperatures (Kelvin)      0.45916     0.09984     0.08724
 Rotational constants (GHZ):           9.56744     2.08029     1.81774
    1 imaginary frequencies ignored.
 Zero-point vibrational energy     245242.7 (Joules/Mol)
                                   58.61442 (Kcal/Mol)
 Warning -- explicit consideration of   6 degrees of freedom as
           vibrations may cause significant error
 Vibrational temperatures:    196.47   306.37   393.71   531.29   733.66
          (Kelvin)            805.50  1074.32  1106.93  1155.29  1230.78
                             1363.26  1444.84  1455.50  1489.67  1570.17
                             1623.83  1895.42  1914.76  2011.73  2110.06
                             2128.74  2407.33  2430.13  4530.68  4552.74
                             4566.50  4575.11  4685.75  4701.23

 Zero-point correction=                           0.093408 (Hartree/Particle)
 Thermal correction to Energy=                    0.099208
 Thermal correction to Enthalpy=                  0.100152
 Thermal correction to Gibbs Free Energy=         0.064107
 Sum of electronic and zero-point Energies=           -263.851748
 Sum of electronic and thermal Energies=              -263.845948
 Sum of electronic and thermal Enthalpies=            -263.845004
 Sum of electronic and thermal Free Energies=         -263.881049

                     E (Thermal)             CV                S
                      KCal/Mol        Cal/Mol-Kelvin    Cal/Mol-Kelvin
 Total                   62.254             20.641             75.864
 Electronic               0.000              0.000              0.000
 Translational            0.889              2.981             39.128
 Rotational               0.889              2.981             26.588
 Vibrational             60.476             14.679             10.147
 Vibration     1          0.614              1.917              2.852
 Vibration     2          0.644              1.821              2.018
 Vibration     3          0.676              1.722              1.573
 Vibration     4          0.742              1.535              1.083
 Vibration     5          0.865              1.228              0.634
 Vibration     6          0.915              1.118              0.524

 Optimization completed.
    -- Stationary point found.
 Normal termination of Gaussian 09 at Mon Oct 23 21:34:32 2017.
