 Gaussian 09, Revision D.01,
 Gaussian 09:  AM64L-G09RevD.01 24-Apr-2013

 -------------------------
 # B3lyp/3-21g nosym force
 -------------------------

 99//99;

 Symbolic Z-matrix:
 Charge =  0 Multiplicity = 1

                          Input orientation:
 ---------------------------------------------------------------------
 Center     Atomic      Atomic             Coordinates (Angstroms)
 Number     Number       Type             X           Y           Z
 ---------------------------------------------------------------------
      1          8           0        0.000000    0.000000    0.000000
      2          1           0        0.966186    0.000000    0.000000
      3          1           0       -0.672261    0.655581    0.000000
 ---------------------------------------------------------------------

 SCF Done:  E(RB3LYP) =  -75.9517895206     A.U. after   10 cycles

 Alpha  occ. eigenvalues --  -18.96463  -0.95526  -0.54404  -0.26232  -0.24073
 Alpha virt. eigenvalues --    0.09619   0.21052   0.85806   1.10642   1.45576
 Alpha virt. eigenvalues --    1.47736   1.77849   2.72260

 Mulliken charges:
               1
     1  O   -0.739892
     2  H    0.368673
     3  H    0.371219
 Sum of Mulliken charges =   0.00000

 Dipole moment (field-independent basis, Debye):
    X=              0.6737    Y=              1.5909    Z=              0.0000  Tot=              1.7277
 Quadrupole moment (field-independent basis, Debye-Ang):
   XX=             -3.3606   YY=             -5.6939   ZZ=             -6.7483
   XY=             -1.0903   XZ=              0.0000   YZ=              0.0000

 Normal termination of Gaussian 09 at Mon Mar 20 22:13:09 2017.
