 Gaussian 09, Revision D.01,
 Gaussian 09:  AM64L-G09RevD.01 24-Apr-2013

 ------------------------
 # B3lyp/3-21g nosym freq
 ------------------------

 -------
 hessian
 -------
 Symbolic Z-matrix:
 Charge =  0 Multiplicity = 1

                          Input orientation:
 ---------------------------------------------------------------------
 Center     Atomic      Atomic             Coordinates (Angstroms)
 Number     Number       Type             X           Y           Z
 ---------------------------------------------------------------------
      1          8           0        0.000000    0.000000    0.000000
      2          1           0        0.996717    0.000000    0.000000
      3          1           0       -0.238591    0.967740    0.000000
 ---------------------------------------------------------------------

 SCF Done:  E(RB3LYP) =  -75.9739646112     A.U. after    9 cycles

 Alpha  occ. eigenvalues --  -19.00332  -0.97590  -0.49232  -0.32713  -0.25690
 Alpha virt. eigenvalues --    0.08722   0.17659   0.91272   0.97532   1.43851
 Alpha virt. eigenvalues --    1.52796   1.64414   2.73041

 Mulliken charges:
               1
     1  O   -0.638088
     2  H    0.319044
     3  H    0.319044
 Sum of Mulliken charges =   0.00000

 Dipole moment (field-independent basis, Debye):
    X=              1.3813    Y=              1.7632    Z=              0.0000  Tot=              2.2398
 Quadrupole moment (field-independent basis, Debye-Ang):
   XX=             -4.6398   YY=             -4.8840   ZZ=             -6.8551
   XY=             -0.4951   XZ=              0.0000   YZ=              0.0000

  Exact polarizability:   6.374  -1.460   5.654   0.000   0.000   0.800
 Approx polarizability:   7.715  -1.417   7.016   0.000   0.000   0.765

                      1                      2                      3
                      A                      A                      A
 Frequencies --   1693.7318              3415.0043              3554.3115
 Red. masses --      1.0895                 1.0389                 1.0812
 Frc consts  --      1.8415                 7.1382                 8.0477
 IR Inten    --     36.5585                13.7356                 1.6304

 - Thermochemistry -
 -------------------
 Temperature   298.150 Kelvin.  Pressure   1.00000 Atm.
 Atom     1 has atomic number  8 and mass  15.99491

 Molecular mass:    18.01056 amu.
 Principal axes and moments of inertia in atomic units:
                           1         2         3
     Eigenvalues --     2.41519   4.43129   6.84648
           X            0.78720   0.61669   0.00000
           Y           -0.61669   0.78720   0.00000
           Z            0.00000   0.00000   1.00000
 This molecule is an asymmetric top.
 Rotational symmetry number  2.
 Rotational temperatures (Kelvin)     35.86212    19.54596    12.65085
 Rotational constants (GHZ):         747.24618   407.27222   263.60135
 Zero-point vibrational energy      51816.5 (Joules/Mol)
                                   12.38445 (Kcal/Mol)
 Vibrational temperatures:   2436.90  4913.42  5113.86
          (Kelvin)

 Zero-point correction=                           0.019736 (Hartree/Particle)
 Thermal correction to Energy=                    0.022571
 Thermal correction to Enthalpy=                  0.023515
 Thermal correction to Gibbs Free Energy=         0.001989
 Sum of electronic and zero-point Energies=            -75.954229
 Sum of electronic and thermal Energies=               -75.951394
 Sum of electronic and thermal Enthalpies=             -75.950450
 Sum of electronic and thermal Free Energies=          -75.971976

                     E (Thermal)             CV                S
                      KCal/Mol        Cal/Mol-Kelvin    Cal/Mol-Kelvin
 Total                   14.163              5.999             45.306
 Electronic               0.000              0.000              0.000
 Translational            0.889              2.981             34.608
 Rotational               0.889              2.981             10.692
 Vibrational             12.386              0.038              0.005

 Optimization completed.
    -- Stationary point found.
 Normal termination of Gaussian 09 at Fri Mar 17 01:06:14 2017.
