 Gaussian 09, Revision D.01,
 Gaussian 09:  AM64L-G09RevD.01 24-Apr-2013

 -----------------------
 # B3lyp/3-21g nosym scf
 -----------------------

 99/5=1,9=1/99;

 Symbolic Z-matrix:
 Charge =  0 Multiplicity = 1

                          Input orientation:
 ---------------------------------------------------------------------
 Center     Atomic      Atomic             Coordinates (Angstroms)
 Number     Number       Type             X           Y           Z
 ---------------------------------------------------------------------
      1          8           0        0.000000    0.000000    0.000000
      2          1           0        0.996622    0.000000    0.000000
      3          1           0       -0.240039   -0.967280    0.000000
 ---------------------------------------------------------------------

 SCF Done:  E(RB3LYP) =  -75.9739648184     A.U. after    9 cycles

 Alpha  occ. eigenvalues --  -19.00323  -0.97583  -0.49248  -0.32693  -0.25686
 Alpha virt. eigenvalues --    0.08726   0.17668   0.91311   0.97504   1.43855
 Alpha virt. eigenvalues --    1.52773   1.64439   2.73035

 Mulliken charges:
               1
     1  O   -0.638327
     2  H    0.319163
     3  H    0.319164
 Sum of Mulliken charges =   0.00000

 Dipole moment (field-independent basis, Debye):
    X=              1.3794    Y=             -1.7635    Z=              0.0000  Tot=              2.2389
 Quadrupole moment (field-independent basis, Debye-Ang):
   XX=             -4.6376   YY=             -4.8849   ZZ=             -6.8548
   XY=              0.4981   XZ=              0.0000   YZ=              0.0000

 Normal termination of Gaussian 09 at Mon Mar 27 01:40:12 2017.
