 Gaussian 09, Revision D.01,
 Gaussian 09:  AM64L-G09RevD.01 24-Apr-2013

 ------------------------
 # B3lyp/3-21g nosym freq
 ------------------------

 -------
 hessian
 -------
 Symbolic Z-matrix:
 Charge =  0 Multiplicity = 1

                          Input orientation:
 ---------------------------------------------------------------------
 Center     Atomic      Atomic             Coordinates (Angstroms)
 Number     Number       Type             X           Y           Z
 ---------------------------------------------------------------------
      1          8           0        0.000000    0.000000    0.000000
      2          1           0        1.042180    0.000000    0.000000
      3          1           0        0.310400    1.004560    0.000000
 ---------------------------------------------------------------------

 SCF Done:  E(RB3LYP) =  -75.9442188118     A.U. after    9 cycles

 Alpha  occ. eigenvalues --  -19.03317  -0.99171  -0.42092  -0.39939  -0.26969
 Alpha virt. eigenvalues --    0.05368   0.14055   0.84135   0.96534   1.42506
 Alpha virt. eigenvalues --    1.58250   1.61257   2.69303

 Mulliken charges:
               1
     1  O   -0.550036
     2  H    0.277418
     3  H    0.272617
 Sum of Mulliken charges =   0.00000

 Dipole moment (field-independent basis, Debye):
    X=              2.0024    Y=              1.4662    Z=              0.0000  Tot=              2.4818
 Quadrupole moment (field-independent basis, Debye-Ang):
   XX=             -4.7884   YY=             -5.1881   ZZ=             -6.9688
   XY=              0.6627   XZ=              0.0000   YZ=              0.0000

  Exact polarizability:   7.092   0.302   7.059   0.000   0.000   0.746
 Approx polarizability:  10.256   2.091   9.252   0.000   0.000   0.711

                      1                      2                      3
                      A                      A                      A
 Frequencies --   1551.3668              2882.9482              3159.5551
 Red. masses --      1.0817                 1.0493                 1.0464
 Frc consts  --      1.5339                 5.1384                 6.1547
 IR Inten    --      2.5633                66.9999                26.5606

 - Thermochemistry -
 -------------------
 Temperature   298.150 Kelvin.  Pressure   1.00000 Atm.
 Atom     1 has atomic number  8 and mass  15.99491

 Molecular mass:    18.01056 amu.
 Principal axes and moments of inertia in atomic units:
                           1         2         3
     Eigenvalues --     2.77898   4.53704   7.31602
           X            0.79401  -0.60791   0.00000
           Y            0.60791   0.79401   0.00000
           Z            0.00000   0.00000   1.00000
 This molecule is an asymmetric top.
 Rotational symmetry number  1.
 Rotational temperatures (Kelvin)     31.16750    19.09039    11.83893
 Rotational constants (GHZ):         649.42609   397.77964   246.68360
 Zero-point vibrational energy      45421.4 (Joules/Mol)
                                   10.85598 (Kcal/Mol)
 Vibrational temperatures:   2232.07  4147.91  4545.89
          (Kelvin)

 Zero-point correction=                           0.017300 (Hartree/Particle)
 Thermal correction to Energy=                    0.020137
 Thermal correction to Enthalpy=                  0.021081
 Thermal correction to Gibbs Free Energy=        -0.001211
 Sum of electronic and zero-point Energies=            -75.926919
 Sum of electronic and thermal Energies=               -75.924082
 Sum of electronic and thermal Enthalpies=             -75.923138
 Sum of electronic and thermal Free Energies=          -75.945429

                     E (Thermal)             CV                S
                      KCal/Mol        Cal/Mol-Kelvin    Cal/Mol-Kelvin
 Total                   12.636              6.025             46.916
 Electronic               0.000              0.000              0.000
 Translational            0.889              2.981             34.608
 Rotational               0.889              2.981             12.298
 Vibrational             10.858              0.063              0.009

 Normal termination of Gaussian 09 at Thu Mar 16 23:00:04 2017.
