 Gaussian 09, Revision D.01,
 Gaussian 09:  AM64L-G09RevD.01 24-Apr-2013

 ------------------------
 # B3lyp/3-21g nosym freq
 ------------------------

 -------
 hessian
 -------
 Symbolic Z-matrix:
 Charge =  0 Multiplicity = 1

                          Input orientation:
 ---------------------------------------------------------------------
 Center     Atomic      Atomic             Coordinates (Angstroms)
 Number     Number       Type             X           Y           Z
 ---------------------------------------------------------------------
      1          8           0        0.000000    0.000000    0.000000
      2          1           0        1.002053    0.000000    0.000000
      3          1           0       -0.159307    0.989406    0.000000
 ---------------------------------------------------------------------

 SCF Done:  E(RB3LYP) =  -75.9733180674     A.U. after    9 cycles

 Alpha  occ. eigenvalues --  -19.00818  -0.97916  -0.48328  -0.33766  -0.25916
 Alpha virt. eigenvalues --    0.08478   0.17147   0.89304   0.98904   1.43620
 Alpha virt. eigenvalues --    1.54120   1.63178   2.73326

 Mulliken charges:
               1
     1  O   -0.625379
     2  H    0.312706
     3  H    0.312673
 Sum of Mulliken charges =   0.00000

 Dipole moment (field-independent basis, Debye):
    X=              1.4849    Y=              1.7430    Z=              0.0000  Tot=              2.2898
 Quadrupole moment (field-independent basis, Debye-Ang):
   XX=             -4.7445   YY=             -4.8499   ZZ=             -6.8692
   XY=             -0.3279   XZ=              0.0000   YZ=              0.0000

  Exact polarizability:   6.369  -1.233   5.974   0.000   0.000   0.793
 Approx polarizability:   7.814  -1.000   7.495   0.000   0.000   0.757

                      1                      2                      3
                      A                      A                      A
 Frequencies --   1728.9785              3390.5627              3478.9694
 Red. masses --      1.0874                 1.0408                 1.0765
 Frc consts  --      1.9151                 7.0499                 7.6763
 IR Inten    --     29.4456                16.3087                 6.1627

 - Thermochemistry -
 -------------------
 Temperature   298.150 Kelvin.  Pressure   1.00000 Atm.
 Atom     1 has atomic number  8 and mass  15.99491

 Molecular mass:    18.01056 amu.
 Principal axes and moments of inertia in atomic units:
                           1         2         3
     Eigenvalues --     2.69944   4.18868   6.88812
           X            0.76110   0.64864   0.00000
           Y           -0.64864   0.76110   0.00000
           Z            0.00000   0.00000   1.00000
 This molecule is an asymmetric top.
 Rotational symmetry number  1.
 Rotational temperatures (Kelvin)     32.08579    20.67809    12.57438
 Rotational constants (GHZ):         668.56025   430.86204   262.00782
 Zero-point vibrational energy      51430.5 (Joules/Mol)
                                   12.29219 (Kcal/Mol)
 Vibrational temperatures:   2487.61  4878.26  5005.45
          (Kelvin)

 Zero-point correction=                           0.019589 (Hartree/Particle)
 Thermal correction to Energy=                    0.022423
 Thermal correction to Enthalpy=                  0.023367
 Thermal correction to Gibbs Free Energy=         0.001158
 Sum of electronic and zero-point Energies=            -75.953729
 Sum of electronic and thermal Energies=               -75.950895
 Sum of electronic and thermal Enthalpies=             -75.949951
 Sum of electronic and thermal Free Energies=          -75.972160

                     E (Thermal)             CV                S
                      KCal/Mol        Cal/Mol-Kelvin    Cal/Mol-Kelvin
 Total                   14.071              5.995             46.743
 Electronic               0.000              0.000              0.000
 Translational            0.889              2.981             34.608
 Rotational               0.889              2.981             12.130
 Vibrational             12.293              0.033              0.004

 Normal termination of Gaussian 09 at Wed Mar 15 01:22:56 2017.
