 Gaussian 09, Revision D.01,
 Gaussian 09:  AM64L-G09RevD.01 24-Apr-2013

 -------------------------
 # B3lyp/3-21g nosym force
 -------------------------

 99//99;

 Symbolic Z-matrix:
 Charge =  0 Multiplicity = 1

                          Input orientation:
 ---------------------------------------------------------------------
 Center     Atomic      Atomic             Coordinates (Angstroms)
 Number     Number       Type             X           Y           Z
 ---------------------------------------------------------------------
      1          6           0       -1.022740    0.802853   -0.666150
      2          6           0       -0.405834    0.802853    0.664008
      3          1           0        0.471140    0.436282   -1.239100
      4          1           0       -1.487441   -0.279233   -0.900847
      5          1           0       -1.587189    1.061048    1.146644
      6          1           0       -0.303378    0.557878    1.770308
 ---------------------------------------------------------------------

 SCF Done:  E(RB3LYP) =  -77.8652322597     A.U. after   15 cycles

 Alpha  occ. eigenvalues --  -10.20411 -10.19808  -0.76987  -0.59642  -0.44434
 Alpha  occ. eigenvalues --   -0.38343  -0.28959  -0.21361
 Alpha virt. eigenvalues --   -0.10964   0.02057   0.04811   0.08928   0.13292
 Alpha virt. eigenvalues --    0.31871   0.69908   0.71395   0.73683   0.80483
 Alpha virt. eigenvalues --    0.85355   0.89925   0.91810   0.94112   1.01267

 Mulliken charges:
               1
     1  C   -0.290384
     2  C   -0.320945
     3  H   -0.042557
     4  H    0.257120
     5  H    0.100687
     6  H    0.296079
 Sum of Mulliken charges =   0.00000

 Dipole moment (field-independent basis, Debye):
    X=             -0.7872    Y=             -1.2481    Z=              2.2949  Tot=              2.7284
 Quadrupole moment (field-independent basis, Debye-Ang):
   XX=            -14.7488   YY=            -16.3490   ZZ=            -13.4682
   XY=              1.1401   XZ=             -0.4361   YZ=              2.4787

 Normal termination of Gaussian 09 at Mon Mar 27 18:11:20 2017.
