 Gaussian 09, Revision D.01,
 Gaussian 09:  AM64L-G09RevD.01 24-Apr-2013

 ------------------------
 # B3lyp/3-21g nosym freq
 ------------------------

 99//99;

 Symbolic Z-matrix:
 Charge =  0 Multiplicity = 1

                          Input orientation:
 ---------------------------------------------------------------------
 Center     Atomic      Atomic             Coordinates (Angstroms)
 Number     Number       Type             X           Y           Z
 ---------------------------------------------------------------------
      1          6           0       -0.472982   -0.079583    0.039120
      2          6           0        0.853716   -0.002208    0.529003
      3          1           0       -1.044608    0.735338   -0.423887
      4          1           0       -1.073315   -0.956557    0.288206
      5          1           0        1.284063    0.964652    0.190476
      6          1           0        0.453126   -0.661642   -0.622920
 ---------------------------------------------------------------------

 SCF Done:  E(RB3LYP) =  -78.0179228739     A.U. after   13 cycles

 Alpha  occ. eigenvalues --  -10.17217 -10.13363  -0.82249  -0.58235  -0.48823
 Alpha  occ. eigenvalues --   -0.41332  -0.37223  -0.19961
 Alpha virt. eigenvalues --   -0.02533   0.07674   0.12558   0.15227   0.21111
 Alpha virt. eigenvalues --    0.31919   0.68483   0.71768   0.72044   0.77308
 Alpha virt. eigenvalues --    0.77895   0.84935   0.93288   0.99429   1.04028

 Mulliken charges:
               1
     1  C   -0.515151
     2  C   -0.307822
     3  H    0.194736
     4  H    0.239182
     5  H    0.158455
     6  H    0.230601
 Sum of Mulliken charges =   0.00000

 Dipole moment (field-independent basis, Debye):
    X=             -1.7036    Y=              0.7242    Z=             -1.7318  Tot=              2.5349
 Quadrupole moment (field-independent basis, Debye-Ang):
   XX=            -15.5838   YY=            -13.6049   ZZ=            -15.2627
   XY=              1.7430   XZ=             -1.9239   YZ=              1.1231

  Exact polarizability:  27.113   2.082  19.775   3.628  -0.174  16.718
 Approx polarizability:  39.944   2.211  25.691   7.873   0.943  25.811

 ******    1 imaginary frequencies (negative Signs) ******

                      1                      2                      3
                      A                      A                      A
 Frequencies --  -1200.2351               983.5047              1080.3586
 Red. masses --      1.1696                 1.0867                 1.3007
 Frc consts  --      0.9927                 0.6193                 0.8945
 IR Inten    --     10.2154                38.5368                39.0843

                      4                      5                      6
                      A                      A                      A
 Frequencies --   1162.3766              1241.9334              1309.3082
 Red. masses --      1.0965                 2.9151                 1.2638
 Frc consts  --      0.8729                 2.6491                 1.2765
 IR Inten    --     14.7907                13.4193                24.3068

                      7                      8                      9
                      A                      A                      A
 Frequencies --   1425.4000              1590.9870              2019.8030
 Red. masses --      1.2401                 1.1162                 1.0607
 Frc consts  --      1.4846                 1.6647                 2.5495
 IR Inten    --     19.0814                 0.6183                 8.6966

                     10                     11                     12
                      A                      A                      A
 Frequencies --   2927.9116              3014.8383              3131.6950
 Red. masses --      1.0801                 1.0646                 1.0990
 Frc consts  --      5.4555                 5.7012                 6.3502
 IR Inten    --     87.0954                55.4211                23.1454

 - Thermochemistry -
 -------------------
 Temperature   298.150 Kelvin.  Pressure   1.00000 Atm.
 Atom     1 has atomic number  6 and mass  12.00000

 Molecular mass:    28.03130 amu.
 Principal axes and moments of inertia in atomic units:
                           1         2         3
     Eigenvalues --    14.13121  63.32603  69.00012
           X            0.94593  -0.04071  -0.32179
           Y            0.12606   0.96024   0.24908
           Z            0.29886  -0.27618   0.91346
 This molecule is an asymmetric top.
 Rotational symmetry number  1.
 Rotational temperatures (Kelvin)      6.12926     1.36774     1.25527
 Rotational constants (GHZ):         127.71313    28.49920    26.15563
    1 imaginary frequencies ignored.
 Zero-point vibrational energy     118957.4 (Joules/Mol)
                                   28.43149 (Kcal/Mol)
 Vibrational temperatures:   1415.04  1554.39  1672.40  1786.86  1883.80
          (Kelvin)           2050.83  2289.07  2906.04  4212.61  4337.67
                             4505.81

 Zero-point correction=                           0.045308 (Hartree/Particle)
 Thermal correction to Energy=                    0.048262
 Thermal correction to Enthalpy=                  0.049206
 Thermal correction to Gibbs Free Energy=         0.023078
 Sum of electronic and zero-point Energies=            -77.972614
 Sum of electronic and thermal Energies=               -77.969661
 Sum of electronic and thermal Enthalpies=             -77.968716
 Sum of electronic and thermal Free Energies=          -77.994845

                     E (Thermal)             CV                S
                      KCal/Mol        Cal/Mol-Kelvin    Cal/Mol-Kelvin
 Total                   30.285              7.371             54.992
 Electronic               0.000              0.000              0.000
 Translational            0.889              2.981             35.927
 Rotational               0.889              2.981             18.763
 Vibrational             28.508              1.409              0.302

 Optimization completed.
    -- Stationary point found.
 Normal termination of Gaussian 09 at Wed Oct 11 07:01:34 2017.
