 Gaussian 09, Revision D.01,
 Gaussian 09:  AM64L-G09RevD.01 24-Apr-2013

 ------------------------
 # B3lyp/3-21g nosym freq
 ------------------------

 99//99;

 Symbolic Z-matrix:
 Charge =  0 Multiplicity = 1

                          Input orientation:
 ---------------------------------------------------------------------
 Center     Atomic      Atomic             Coordinates (Angstroms)
 Number     Number       Type             X           Y           Z
 ---------------------------------------------------------------------
      1          6           0       -0.474414    0.077024    0.039835
      2          6           0        0.854213    0.009377    0.524871
      3          1           0       -1.076552    0.955050    0.283296
      4          1           0       -1.044978   -0.742507   -0.416100
      5          1           0        0.453715    0.659551   -0.626185
      6          1           0        1.288016   -0.958495    0.194281
 ---------------------------------------------------------------------

 SCF Done:  E(RB3LYP) =  -78.0179282466     A.U. after   13 cycles

 Alpha  occ. eigenvalues --  -10.17249 -10.13337  -0.82248  -0.58240  -0.48839
 Alpha  occ. eigenvalues --   -0.41299  -0.37210  -0.19981
 Alpha virt. eigenvalues --   -0.02533   0.07701   0.12560   0.15213   0.21106
 Alpha virt. eigenvalues --    0.31945   0.68487   0.71804   0.72039   0.77304
 Alpha virt. eigenvalues --    0.77947   0.84797   0.93298   0.99425   1.04000

 Mulliken charges:
               1
     1  C   -0.512792
     2  C   -0.309754
     3  H    0.239024
     4  H    0.194669
     5  H    0.230167
     6  H    0.158686
 Sum of Mulliken charges =   0.00000

 Dipole moment (field-independent basis, Debye):
    X=             -1.7063    Y=             -0.7408    Z=             -1.7189  Tot=              2.5327
 Quadrupole moment (field-independent basis, Debye-Ang):
   XX=            -15.5696   YY=            -13.6341   ZZ=            -15.2338
   XY=             -1.7666   XZ=             -1.8931   YZ=             -1.1286

  Exact polarizability:  27.194  -2.016  19.764   3.661   0.171  16.678
 Approx polarizability:  40.181  -2.087  25.657   8.018  -0.899  25.804

 ******    1 imaginary frequencies (negative Signs) ******

                      1                      2                      3
                      A                      A                      A
 Frequencies --  -1222.4545               983.6241              1079.7469
 Red. masses --      1.1675                 1.0862                 1.3034
 Frc consts  --      1.0279                 0.6192                 0.8953
 IR Inten    --     11.3906                39.1151                39.0564

                      4                      5                      6
                      A                      A                      A
 Frequencies --   1165.6572              1241.7536              1309.1444
 Red. masses --      1.0943                 2.9228                 1.2684
 Frc consts  --      0.8760                 2.6553                 1.2808
 IR Inten    --     15.3507                13.6060                24.2591

                      7                      8                      9
                      A                      A                      A
 Frequencies --   1424.8719              1591.2459              2015.0476
 Red. masses --      1.2377                 1.1170                 1.0605
 Frc consts  --      1.4805                 1.6664                 2.5372
 IR Inten    --     18.6787                 0.6565                 8.4046

                     10                     11                     12
                      A                      A                      A
 Frequencies --   2929.5036              3014.9866              3126.8960
 Red. masses --      1.0802                 1.0638                 1.0998
 Frc consts  --      5.4616                 5.6977                 6.3356
 IR Inten    --     86.3565                54.5987                23.8104

 - Thermochemistry -
 -------------------
 Temperature   298.150 Kelvin.  Pressure   1.00000 Atm.
 Atom     1 has atomic number  6 and mass  12.00000

 Molecular mass:    28.03130 amu.
 Principal axes and moments of inertia in atomic units:
                           1         2         3
     Eigenvalues --    14.12578  63.30094  68.99703
           X            0.94771   0.03829  -0.31683
           Y           -0.11946   0.96317  -0.24090
           Z            0.29593   0.26615   0.91738
 This molecule is an asymmetric top.
 Rotational symmetry number  1.
 Rotational temperatures (Kelvin)      6.13161     1.36829     1.25533
 Rotational constants (GHZ):         127.76228    28.51049    26.15680
    1 imaginary frequencies ignored.
 Zero-point vibrational energy     118923.6 (Joules/Mol)
                                   28.42343 (Kcal/Mol)
 Vibrational temperatures:   1415.21  1553.51  1677.12  1786.60  1883.56
          (Kelvin)           2050.07  2289.45  2899.20  4214.90  4337.89
                             4498.90

 Zero-point correction=                           0.045296 (Hartree/Particle)
 Thermal correction to Energy=                    0.048249
 Thermal correction to Enthalpy=                  0.049193
 Thermal correction to Gibbs Free Energy=         0.023065
 Sum of electronic and zero-point Energies=            -77.972633
 Sum of electronic and thermal Energies=               -77.969679
 Sum of electronic and thermal Enthalpies=             -77.968735
 Sum of electronic and thermal Free Energies=          -77.994863

                     E (Thermal)             CV                S
                      KCal/Mol        Cal/Mol-Kelvin    Cal/Mol-Kelvin
 Total                   30.277              7.369             54.991
 Electronic               0.000              0.000              0.000
 Translational            0.889              2.981             35.927
 Rotational               0.889              2.981             18.762
 Vibrational             28.499              1.408              0.302

 Normal termination of Gaussian 09 at Sat Oct 14 10:58:57 2017.
