 Gaussian 09, Revision D.01,
 Gaussian 09:  AM64L-G09RevD.01 24-Apr-2013

 ------------------------
 # B3lyp/3-21g nosym freq
 ------------------------

 99//99;

 Symbolic Z-matrix:
 Charge =  0 Multiplicity = 1

                          Input orientation:
 ---------------------------------------------------------------------
 Center     Atomic      Atomic             Coordinates (Angstroms)
 Number     Number       Type             X           Y           Z
 ---------------------------------------------------------------------
      1          6           0       -0.329195    0.226045   -0.063828
      2          6           0        0.756969   -0.249197    0.861569
      3          1           0       -1.024996    0.929648    0.397604
      4          1           0       -0.890612   -0.641916   -0.460276
      5          1           0        0.120504    0.688339   -0.963711
      6          1           0        1.367329   -0.952919    0.228640
 ---------------------------------------------------------------------

 SCF Done:  E(RB3LYP) =  -78.0301276683     A.U. after   12 cycles

 Alpha  occ. eigenvalues --  -10.16136 -10.13380  -0.77308  -0.58383  -0.43996
 Alpha  occ. eigenvalues --   -0.42955  -0.37239  -0.20127
 Alpha virt. eigenvalues --   -0.08845   0.11812   0.16587   0.16815   0.19181
 Alpha virt. eigenvalues --    0.26270   0.71602   0.71683   0.73139   0.77064
 Alpha virt. eigenvalues --    0.79511   0.84366   0.93966   1.00327   1.05753

 Mulliken charges:
               1
     1  C   -0.697833
     2  C   -0.124755
     3  H    0.221932
     4  H    0.229667
     5  H    0.229686
     6  H    0.141303
 Sum of Mulliken charges =   0.00000

 Dipole moment (field-independent basis, Debye):
    X=             -0.7753    Y=             -0.2926    Z=             -2.3293  Tot=              2.4723
 Quadrupole moment (field-independent basis, Debye-Ang):
   XX=            -14.0567   YY=            -12.9081   ZZ=            -17.8984
   XY=              0.1731   XZ=             -2.2890   YZ=             -0.2331

  Exact polarizability:  22.655  -3.668  19.694   1.636  -0.292  19.531
 Approx polarizability:  29.419  -3.783  26.072   2.184  -0.421  26.631

 ******    1 imaginary frequencies (negative Signs) ******

                      1                      2                      3
                      A                      A                      A
 Frequencies --   -357.0437               845.5418               923.2708
 Red. masses --      1.2435                 1.0949                 1.8404
 Frc consts  --      0.0934                 0.4612                 0.9243
 IR Inten    --     19.4564                 0.7859                23.1886

                      4                      5                      6
                      A                      A                      A
 Frequencies --    993.1246              1314.6228              1377.9912
 Red. masses --      1.8818                 1.2710                 1.1665
 Frc consts  --      1.0935                 1.2942                 1.3050
 IR Inten    --      4.6073                31.4353                41.1501

                      7                      8                      9
                      A                      A                      A
 Frequencies --   1526.2117              1530.2634              2787.3942
 Red. masses --      1.0741                 1.0623                 1.0798
 Frc consts  --      1.4741                 1.4657                 4.9431
 IR Inten    --      1.3996                19.7534               124.8407

                     10                     11                     12
                      A                      A                      A
 Frequencies --   2958.3658              2990.3206              3121.6571
 Red. masses --      1.0438                 1.0881                 1.0918
 Frc consts  --      5.3824                 5.7327                 6.2685
 IR Inten    --      2.4329                 2.4272                31.3738

 - Thermochemistry -
 -------------------
 Temperature   298.150 Kelvin.  Pressure   1.00000 Atm.
 Atom     1 has atomic number  6 and mass  12.00000

 Molecular mass:    28.03130 amu.
 Principal axes and moments of inertia in atomic units:
                           1         2         3
     Eigenvalues --    15.20124  71.53729  75.77818
           X            0.74778  -0.32414   0.57945
           Y           -0.35630   0.54052   0.76216
           Z            0.56025   0.77638  -0.28870
 This molecule is an asymmetric top.
 Rotational symmetry number  1.
 Rotational temperatures (Kelvin)      5.69781     1.21075     1.14299
 Rotational constants (GHZ):         118.72331    25.22798    23.81611
    1 imaginary frequencies ignored.
 Zero-point vibrational energy     121832.3 (Joules/Mol)
                                   29.11861 (Kcal/Mol)
 Vibrational temperatures:   1216.54  1328.38  1428.88  1891.45  1982.62
          (Kelvin)           2195.88  2201.70  4010.43  4256.42  4302.40
                             4491.36

 Zero-point correction=                           0.046403 (Hartree/Particle)
 Thermal correction to Energy=                    0.049417
 Thermal correction to Enthalpy=                  0.050361
 Thermal correction to Gibbs Free Energy=         0.024020
 Sum of electronic and zero-point Energies=            -77.983724
 Sum of electronic and thermal Energies=               -77.980711
 Sum of electronic and thermal Enthalpies=             -77.979767
 Sum of electronic and thermal Free Energies=          -78.006108

                     E (Thermal)             CV                S
                      KCal/Mol        Cal/Mol-Kelvin    Cal/Mol-Kelvin
 Total                   31.010              7.786             55.440
 Electronic               0.000              0.000              0.000
 Translational            0.889              2.981             35.927
 Rotational               0.889              2.981             19.050
 Vibrational             29.232              1.824              0.463

 Optimization completed.
    -- Stationary point found.
 Normal termination of Gaussian 09 at Sat Oct 14 16:10:51 2017.
