 Gaussian 09, Revision D.01,
 Gaussian 09:  AM64L-G09RevD.01 24-Apr-2013

 ------------------------
 # B3lyp/3-21g nosym freq
 ------------------------

 99//99;

 Symbolic Z-matrix:
 Charge =  0 Multiplicity = 1

                          Input orientation:
 ---------------------------------------------------------------------
 Center     Atomic      Atomic             Coordinates (Angstroms)
 Number     Number       Type             X           Y           Z
 ---------------------------------------------------------------------
      1          6           0       -0.473187    0.077661    0.040523
      2          6           0        0.856191    0.012143    0.524834
      3          1           0       -1.076676    0.954312    0.283036
      4          1           0       -1.042954   -0.745023   -0.410896
      5          1           0        0.446832    0.657082   -0.632215
      6          1           0        1.289794   -0.956174    0.194716
 ---------------------------------------------------------------------

 SCF Done:  E(RB3LYP) =  -78.0179221309     A.U. after   13 cycles

 Alpha  occ. eigenvalues --  -10.17217 -10.13363  -0.82248  -0.58235  -0.48823
 Alpha  occ. eigenvalues --   -0.41332  -0.37223  -0.19960
 Alpha virt. eigenvalues --   -0.02533   0.07674   0.12558   0.15227   0.21110
 Alpha virt. eigenvalues --    0.31919   0.68484   0.71768   0.72043   0.77308
 Alpha virt. eigenvalues --    0.77894   0.84936   0.93288   0.99430   1.04029

 Mulliken charges:
               1
     1  C   -0.515160
     2  C   -0.307814
     3  H    0.239184
     4  H    0.194735
     5  H    0.230602
     6  H    0.158453
 Sum of Mulliken charges =   0.00000

 Dipole moment (field-independent basis, Debye):
    X=             -1.7081    Y=             -0.7513    Z=             -1.7156  Tot=              2.5348
 Quadrupole moment (field-independent basis, Debye-Ang):
   XX=            -15.5844   YY=            -13.6470   ZZ=            -15.2199
   XY=             -1.7788   XZ=             -1.8975   YZ=             -1.1417

  Exact polarizability:  27.168  -2.006  19.758   3.599   0.168  16.680
 Approx polarizability:  40.040  -2.059  25.650   7.832  -0.893  25.755

 ******    1 imaginary frequencies (negative Signs) ******

                      1                      2                      3
                      A                      A                      A
 Frequencies --  -1200.2387               983.2227              1080.1583
 Red. masses --      1.1696                 1.0867                 1.3006
 Frc consts  --      0.9927                 0.6190                 0.8940
 IR Inten    --     10.2153                38.6104                39.0392

                      4                      5                      6
                      A                      A                      A
 Frequencies --   1162.3271              1241.7752              1309.1526
 Red. masses --      1.0963                 2.9134                 1.2646
 Frc consts  --      0.8726                 2.6469                 1.2770
 IR Inten    --     14.7766                13.4633                24.2339

                      7                      8                      9
                      A                      A                      A
 Frequencies --   1425.3944              1590.9994              2019.8123
 Red. masses --      1.2402                 1.1162                 1.0607
 Frc consts  --      1.4846                 1.6647                 2.5495
 IR Inten    --     19.0935                 0.6173                 8.6935

                     10                     11                     12
                      A                      A                      A
 Frequencies --   2927.7206              3014.8352              3131.6942
 Red. masses --      1.0801                 1.0646                 1.0990
 Frc consts  --      5.4549                 5.7012                 6.3502
 IR Inten    --     87.1069                55.4296                23.1402

 - Thermochemistry -
 -------------------
 Temperature   298.150 Kelvin.  Pressure   1.00000 Atm.
 Atom     1 has atomic number  6 and mass  12.00000

 Molecular mass:    28.03130 amu.
 Principal axes and moments of inertia in atomic units:
                           1         2         3
     Eigenvalues --    14.13113  63.32631  69.00020
           X            0.94796   0.03723  -0.31620
           Y           -0.11815   0.96336  -0.24078
           Z            0.29565   0.26561   0.91763
 This molecule is an asymmetric top.
 Rotational symmetry number  1.
 Rotational temperatures (Kelvin)      6.12929     1.36774     1.25527
 Rotational constants (GHZ):         127.71390    28.49907    26.15559
    1 imaginary frequencies ignored.
 Zero-point vibrational energy     118951.2 (Joules/Mol)
                                   28.43003 (Kcal/Mol)
 Vibrational temperatures:   1414.64  1554.10  1672.33  1786.64  1883.58
          (Kelvin)           2050.82  2289.09  2906.06  4212.33  4337.67
                             4505.80

 Zero-point correction=                           0.045306 (Hartree/Particle)
 Thermal correction to Energy=                    0.048260
 Thermal correction to Enthalpy=                  0.049204
 Thermal correction to Gibbs Free Energy=         0.023075
 Sum of electronic and zero-point Energies=            -77.972616
 Sum of electronic and thermal Energies=               -77.969662
 Sum of electronic and thermal Enthalpies=             -77.968718
 Sum of electronic and thermal Free Energies=          -77.994847

                     E (Thermal)             CV                S
                      KCal/Mol        Cal/Mol-Kelvin    Cal/Mol-Kelvin
 Total                   30.284              7.371             54.993
 Electronic               0.000              0.000              0.000
 Translational            0.889              2.981             35.927
 Rotational               0.889              2.981             18.763
 Vibrational             28.506              1.410              0.302

 Optimization completed.
    -- Stationary point found.
 Normal termination of Gaussian 09 at Sat Oct 14 06:44:59 2017.
