 Gaussian 09, Revision D.01,
 Gaussian 09:  AM64L-G09RevD.01 24-Apr-2013

 ------------------------
 # B3lyp/3-21g nosym freq
 ------------------------

 99//99;

 Symbolic Z-matrix:
 Charge =  0 Multiplicity = 1

                          Input orientation:
 ---------------------------------------------------------------------
 Center     Atomic      Atomic             Coordinates (Angstroms)
 Number     Number       Type             X           Y           Z
 ---------------------------------------------------------------------
      1          6           0       -0.365319    0.059895   -0.162767
      2          6           0        0.623930   -0.860345    0.497930
      3          1           0       -0.546131    0.941418    0.482183
      4          1           0       -1.317857   -0.416335   -0.403554
      5          1           0        0.076781    0.487268   -1.083423
      6          1           0        1.528596   -0.211900    0.669629
 ---------------------------------------------------------------------

 SCF Done:  E(RB3LYP) =  -78.0301229917     A.U. after   12 cycles

 Alpha  occ. eigenvalues --  -10.16136 -10.13380  -0.77308  -0.58383  -0.43996
 Alpha  occ. eigenvalues --   -0.42956  -0.37239  -0.20127
 Alpha virt. eigenvalues --   -0.08845   0.11812   0.16587   0.16815   0.19181
 Alpha virt. eigenvalues --    0.26269   0.71602   0.71683   0.73140   0.77064
 Alpha virt. eigenvalues --    0.79512   0.84365   0.93966   1.00328   1.05754

 Mulliken charges:
               1
     1  C   -0.697831
     2  C   -0.124748
     3  H    0.229681
     4  H    0.221932
     5  H    0.229667
     6  H    0.141299
 Sum of Mulliken charges =   0.00000

 Dipole moment (field-independent basis, Debye):
    X=             -0.2015    Y=              2.3438    Z=             -0.7604  Tot=              2.4723
 Quadrupole moment (field-independent basis, Debye-Ang):
   XX=            -13.4149   YY=            -17.9480   ZZ=            -13.5003
   XY=              1.0979   XZ=             -0.6079   YZ=              1.9637

  Exact polarizability:  23.789  -1.078  19.541   3.008  -1.162  18.548
 Approx polarizability:  30.391  -1.488  26.642   3.231  -1.545  25.089

 ******    1 imaginary frequencies (negative Signs) ******

                      1                      2                      3
                      A                      A                      A
 Frequencies --   -356.8978               844.7583               922.5135
 Red. masses --      1.2434                 1.0949                 1.8014
 Frc consts  --      0.0933                 0.4603                 0.9033
 IR Inten    --     19.4378                 0.7826                22.9724

                      4                      5                      6
                      A                      A                      A
 Frequencies --    990.8278              1313.2705              1377.1140
 Red. masses --      1.9223                 1.2743                 1.1650
 Frc consts  --      1.1119                 1.2948                 1.3017
 IR Inten    --      4.8650                31.0791                41.3858

                      7                      8                      9
                      A                      A                      A
 Frequencies --   1525.7599              1529.6921              2786.6182
 Red. masses --      1.0737                 1.0624                 1.0799
 Frc consts  --      1.4727                 1.4646                 4.9405
 IR Inten    --      1.3798                19.7977               124.9022

                     10                     11                     12
                      A                      A                      A
 Frequencies --   2958.2390              2990.4156              3121.5697
 Red. masses --      1.0438                 1.0882                 1.0918
 Frc consts  --      5.3819                 5.7334                 6.2679
 IR Inten    --      2.4367                 2.4306                31.3548

 - Thermochemistry -
 -------------------
 Temperature   298.150 Kelvin.  Pressure   1.00000 Atm.
 Atom     1 has atomic number  6 and mass  12.00000

 Molecular mass:    28.03130 amu.
 Principal axes and moments of inertia in atomic units:
                           1         2         3
     Eigenvalues --    15.20124  71.53756  75.77840
           X            0.70431   0.61366  -0.35690
           Y           -0.55586   0.78943   0.26042
           Z            0.44156   0.01497   0.89711
 This molecule is an asymmetric top.
 Rotational symmetry number  1.
 Rotational temperatures (Kelvin)      5.69781     1.21075     1.14299
 Rotational constants (GHZ):         118.72332    25.22788    23.81604
    1 imaginary frequencies ignored.
 Zero-point vibrational energy     121784.5 (Joules/Mol)
                                   29.10719 (Kcal/Mol)
 Vibrational temperatures:   1215.42  1327.29  1425.58  1889.50  1981.36
          (Kelvin)           2195.23  2200.88  4009.32  4256.24  4302.54
                             4491.24

 Zero-point correction=                           0.046385 (Hartree/Particle)
 Thermal correction to Energy=                    0.049400
 Thermal correction to Enthalpy=                  0.050344
 Thermal correction to Gibbs Free Energy=         0.024001
 Sum of electronic and zero-point Energies=            -77.983738
 Sum of electronic and thermal Energies=               -77.980723
 Sum of electronic and thermal Enthalpies=             -77.979779
 Sum of electronic and thermal Free Energies=          -78.006122

                     E (Thermal)             CV                S
                      KCal/Mol        Cal/Mol-Kelvin    Cal/Mol-Kelvin
 Total                   30.999              7.792             55.442
 Electronic               0.000              0.000              0.000
 Translational            0.889              2.981             35.927
 Rotational               0.889              2.981             19.050
 Vibrational             29.221              1.830              0.465

 Optimization completed.
    -- Stationary point found.
 Normal termination of Gaussian 09 at Sat Oct 14 16:16:15 2017.
