 Gaussian 09, Revision D.01,
 Gaussian 09:  AM64L-G09RevD.01 24-Apr-2013

 ------------------------
 # B3lyp/3-21g nosym freq
 ------------------------

 99//99;

 Symbolic Z-matrix:
 Charge =  0 Multiplicity = 1

                          Input orientation:
 ---------------------------------------------------------------------
 Center     Atomic      Atomic             Coordinates (Angstroms)
 Number     Number       Type             X           Y           Z
 ---------------------------------------------------------------------
      1          6           0       -0.845267   -0.195652   -0.000002
      2          6           0        0.430300   -0.429405   -0.000001
      3          1           0       -1.260386    0.810001    0.000001
      4          1           0       -1.583969   -1.006412   -0.000005
      5          1           0        2.067474    2.009027    0.000009
      6          1           0        1.191847   -1.187559   -0.000003
 ---------------------------------------------------------------------

 SCF Done:  E(RB3LYP) =  -77.9386723467     A.U. after   13 cycles

 Alpha  occ. eigenvalues --  -10.18921 -10.15612  -0.79188  -0.59337  -0.48894
 Alpha  occ. eigenvalues --   -0.45495  -0.30799  -0.20911
 Alpha virt. eigenvalues --   -0.12686   0.00212   0.12693   0.13985   0.21639
 Alpha virt. eigenvalues --    0.37598   0.64657   0.69700   0.74037   0.74789
 Alpha virt. eigenvalues --    0.77526   0.84021   0.99839   1.00019   1.06117

 Mulliken charges:
               1
     1  C   -0.453521
     2  C   -0.127332
     3  H    0.251299
     4  H    0.224662
     5  H   -0.139947
     6  H    0.244838
 Sum of Mulliken charges =   0.00000

 Dipole moment (field-independent basis, Debye):
    X=             -1.7396    Y=             -2.0160    Z=              0.0000  Tot=              2.6628
 Quadrupole moment (field-independent basis, Debye-Ang):
   XX=            -14.0051   YY=            -14.2708   ZZ=            -15.7276
   XY=             -3.5122   XZ=              0.0000   YZ=              0.0000

  Exact polarizability:  56.071  28.733  50.897   0.000   0.000   6.409
 Approx polarizability: 178.123 163.370 234.367   0.001   0.001   7.218

 ******    1 imaginary frequencies (negative Signs) ******

                      1                      2                      3
                      A                      A                      A
 Frequencies --   -659.8180               431.5201               435.7420
 Red. masses --      1.0731                 1.1543                 1.2869
 Frc consts  --      0.2753                 0.1266                 0.1440
 IR Inten    --     65.7102                 2.0841                 5.8940

                      4                      5                      6
                      A                      A                      A
 Frequencies --    704.9163               796.0586               949.6570
 Red. masses --      1.0557                 1.1958                 1.2785
 Frc consts  --      0.3091                 0.4465                 0.6794
 IR Inten    --     26.9652                33.6747                91.5093

                      7                      8                      9
                      A                      A                      A
 Frequencies --   1027.0131              1433.4663              1689.8270
 Red. masses --      1.4850                 1.0857                 5.4068
 Frc consts  --      0.9228                 1.3144                 9.0965
 IR Inten    --     95.1386                18.8325                41.1807

                     10                     11                     12
                      A                      A                      A
 Frequencies --   3042.9628              3162.9782              3333.1458
 Red. masses --      1.0691                 1.0942                 1.1140
 Frc consts  --      5.8328                 6.4496                 7.2917
 IR Inten    --      4.4702                 1.3435                 9.6085

 - Thermochemistry -
 -------------------
 Temperature   298.150 Kelvin.  Pressure   1.00000 Atm.
 Atom     1 has atomic number  6 and mass  12.00000

 Molecular mass:    28.03130 amu.
 Principal axes and moments of inertia in atomic units:
                           1         2         3
     Eigenvalues --    27.97086  72.31016 100.28102
           X            0.98677  -0.16214   0.00000
           Y            0.16214   0.98677   0.00000
           Z            0.00000   0.00000   1.00000
 This molecule is an asymmetric top.
 Rotational symmetry number  1.
 Rotational temperatures (Kelvin)      3.09657     1.19781     0.86371
 Rotational constants (GHZ):          64.52219    24.95834    17.99684
    1 imaginary frequencies ignored.
 Zero-point vibrational energy     101726.2 (Joules/Mol)
                                   24.31314 (Kcal/Mol)
 Warning -- explicit consideration of   2 degrees of freedom as
           vibrations may cause significant error
 Vibrational temperatures:    620.86   626.93  1014.22  1145.35  1366.34
          (Kelvin)           1477.64  2062.44  2431.28  4378.14  4550.81
                             4795.65

 Zero-point correction=                           0.038745 (Hartree/Particle)
 Thermal correction to Energy=                    0.042411
 Thermal correction to Enthalpy=                  0.043355
 Thermal correction to Gibbs Free Energy=         0.015657
 Sum of electronic and zero-point Energies=            -77.899927
 Sum of electronic and thermal Energies=               -77.896261
 Sum of electronic and thermal Enthalpies=             -77.895317
 Sum of electronic and thermal Free Energies=          -77.923015

                     E (Thermal)             CV                S
                      KCal/Mol        Cal/Mol-Kelvin    Cal/Mol-Kelvin
 Total                   26.613             11.150             58.296
 Electronic               0.000              0.000              0.000
 Translational            0.889              2.981             35.927
 Rotational               0.889              2.981             19.945
 Vibrational             24.836              5.188              2.424
 Vibration     1          0.793              1.402              0.854
 Vibration     2          0.796              1.392              0.840

 Normal termination of Gaussian 09 at Wed Oct 11 07:01:38 2017.
