 Gaussian 09, Revision D.01,
 Gaussian 09:  AM64L-G09RevD.01 24-Apr-2013

 ------------------------
 # B3lyp/3-21g nosym freq
 ------------------------

 99//99;

 Symbolic Z-matrix:
 Charge =  0 Multiplicity = 1

                          Input orientation:
 ---------------------------------------------------------------------
 Center     Atomic      Atomic             Coordinates (Angstroms)
 Number     Number       Type             X           Y           Z
 ---------------------------------------------------------------------
      1          6           0       -0.852893   -0.003704   -0.530329
      2          6           0        0.472808    0.080701   -0.038910
      3          1           0       -0.456022    0.664368    0.617889
      4          1           0       -1.280948   -0.969593   -0.186176
      5          1           0        1.071008    0.957767   -0.292756
      6          1           0        1.046048   -0.729539    0.430280
 ---------------------------------------------------------------------

 SCF Done:  E(RB3LYP) =  -78.0179233448     A.U. after   13 cycles

 Alpha  occ. eigenvalues --  -10.17217 -10.13363  -0.82249  -0.58235  -0.48823
 Alpha  occ. eigenvalues --   -0.41332  -0.37223  -0.19961
 Alpha virt. eigenvalues --   -0.02533   0.07674   0.12558   0.15227   0.21111
 Alpha virt. eigenvalues --    0.31918   0.68483   0.71768   0.72044   0.77308
 Alpha virt. eigenvalues --    0.77895   0.84935   0.93288   0.99429   1.04028

 Mulliken charges:
               1
     1  C   -0.307827
     2  C   -0.515147
     3  H    0.230600
     4  H    0.158455
     5  H    0.239180
     6  H    0.194738
 Sum of Mulliken charges =   0.00000

 Dipole moment (field-independent basis, Debye):
    X=              1.7030    Y=             -0.7080    Z=              1.7391  Tot=              2.5349
 Quadrupole moment (field-independent basis, Debye-Ang):
   XX=            -15.5879   YY=            -13.5803   ZZ=            -15.2833
   XY=              1.7229   XZ=             -1.9389   YZ=              1.1093

  Exact polarizability:  27.089   2.127  19.785   3.631  -0.180  16.732
 Approx polarizability:  39.906   2.301  25.717   7.878   0.970  25.823

 ******    1 imaginary frequencies (negative Signs) ******

                      1                      2                      3
                      A                      A                      A
 Frequencies --  -1200.2663               983.7259              1080.4471
 Red. masses --      1.1696                 1.0868                 1.3008
 Frc consts  --      0.9927                 0.6196                 0.8947
 IR Inten    --     10.2154                38.4921                39.1046

                      4                      5                      6
                      A                      A                      A
 Frequencies --   1162.4178              1242.0438              1309.4200
 Red. masses --      1.0967                 2.9168                 1.2632
 Frc consts  --      0.8731                 2.6512                 1.2761
 IR Inten    --     14.8046                13.3869                24.3653

                      7                      8                      9
                      A                      A                      A
 Frequencies --   1425.4136              1590.9658              2019.7888
 Red. masses --      1.2401                 1.1162                 1.0607
 Frc consts  --      1.4845                 1.6647                 2.5495
 IR Inten    --     19.0704                 0.6190                 8.6986

                     10                     11                     12
                      A                      A                      A
 Frequencies --   2928.0500              3014.8348              3131.6970
 Red. masses --      1.0801                 1.0646                 1.0990
 Frc consts  --      5.4560                 5.7012                 6.3503
 IR Inten    --     87.0869                55.4155                23.1479

 - Thermochemistry -
 -------------------
 Temperature   298.150 Kelvin.  Pressure   1.00000 Atm.
 Atom     1 has atomic number  6 and mass  12.00000

 Molecular mass:    28.03130 amu.
 Principal axes and moments of inertia in atomic units:
                           1         2         3
     Eigenvalues --    14.13125  63.32588  69.00008
           X            0.94510  -0.04305  -0.32394
           Y            0.13074   0.95831   0.25408
           Z            0.29950  -0.28248   0.91132
 This molecule is an asymmetric top.
 Rotational symmetry number  1.
 Rotational temperatures (Kelvin)      6.12924     1.36775     1.25527
 Rotational constants (GHZ):         127.71276    28.49927    26.15564
    1 imaginary frequencies ignored.
 Zero-point vibrational energy     118961.5 (Joules/Mol)
                                   28.43247 (Kcal/Mol)
 Vibrational temperatures:   1415.36  1554.52  1672.46  1787.02  1883.96
          (Kelvin)           2050.85  2289.04  2906.02  4212.81  4337.67
                             4505.81

 Zero-point correction=                           0.045310 (Hartree/Particle)
 Thermal correction to Energy=                    0.048264
 Thermal correction to Enthalpy=                  0.049208
 Thermal correction to Gibbs Free Energy=         0.023079
 Sum of electronic and zero-point Energies=            -77.972613
 Sum of electronic and thermal Energies=               -77.969660
 Sum of electronic and thermal Enthalpies=             -77.968715
 Sum of electronic and thermal Free Energies=          -77.994844

                     E (Thermal)             CV                S
                      KCal/Mol        Cal/Mol-Kelvin    Cal/Mol-Kelvin
 Total                   30.286              7.370             54.992
 Electronic               0.000              0.000              0.000
 Translational            0.889              2.981             35.927
 Rotational               0.889              2.981             18.763
 Vibrational             28.509              1.409              0.302

 Optimization completed.
    -- Stationary point found.
 Normal termination of Gaussian 09 at Fri Oct 13 13:48:41 2017.
