 Gaussian 09, Revision D.01,
 Gaussian 09:  AM64L-G09RevD.01 24-Apr-2013

 -----------------------
 # B3lyp/3-21g nosym opt
 -----------------------

 99/9=1/99;

 Symbolic Z-matrix:
 Charge =  0 Multiplicity = 1

 SCF Done:  E(RB3LYP) =  -75.9723493293     A.U. after    9 cycles
 SCF Done:  E(RB3LYP) =  -75.9738525255     A.U. after   10 cycles
 SCF Done:  E(RB3LYP) =  -75.9739649065     A.U. after    7 cycles
 Optimization completed.
    -- Stationary point found.

                          Input orientation:
 ---------------------------------------------------------------------
 Center     Atomic      Atomic             Coordinates (Angstroms)
 Number     Number       Type             X           Y           Z
 ---------------------------------------------------------------------
      1          8           0        0.000000   -0.556818    0.020415
      2          1           0        0.000000    0.228195    0.633623
      3          1           0        0.000000   -1.341831    0.633623
 ---------------------------------------------------------------------

 Alpha  occ. eigenvalues --  -19.00307  -0.97595  -0.49276  -0.32676  -0.25684
 Alpha virt. eigenvalues --    0.08744   0.17694   0.91359   0.97521   1.43859
 Alpha virt. eigenvalues --    1.52745   1.64458   2.73058

 Mulliken charges:
               1
     1  O   -0.638730
     2  H    0.319365
     3  H    0.319365
 Sum of Mulliken charges =   0.00000

 Dipole moment (field-independent basis, Debye):
    X=              0.0000    Y=              0.0000    Z=              2.2383  Tot=              2.2383
 Quadrupole moment (field-independent basis, Debye-Ang):
   XX=             -6.8537   YY=             -4.2450   ZZ=             -5.1853
   XY=              0.0000   XZ=              0.0000   YZ=             -1.2463

 Normal termination of Gaussian 09 at Mon May  8 12:05:15 2017.
