 Gaussian 09, Revision D.01,
 Gaussian 09:  AM64L-G09RevD.01 24-Apr-2013

 ------------------------
 # B3lyp/3-21g nosym freq
 ------------------------

 99//99;

 Symbolic Z-matrix:
 Charge =  0 Multiplicity = 1

                          Input orientation:
 ---------------------------------------------------------------------
 Center     Atomic      Atomic             Coordinates (Angstroms)
 Number     Number       Type             X           Y           Z
 ---------------------------------------------------------------------
      1          6           0       -0.664417   -0.009285    0.017218
      2          6           0        0.664417    0.009281   -0.017218
      3          1           0       -1.252036    0.903422   -0.010023
      4          1           0       -1.224138   -0.938016    0.074142
      5          1           0        1.224128    0.938017   -0.074144
      6          1           0        1.252046   -0.903420    0.010024
 ---------------------------------------------------------------------

 SCF Done:  E(RB3LYP) =  -78.1610487865     A.U. after    9 cycles

 Alpha  occ. eigenvalues --  -10.11959 -10.11859  -0.75990  -0.57698  -0.46968
 Alpha  occ. eigenvalues --   -0.42344  -0.35250  -0.27064
 Alpha virt. eigenvalues --    0.02226   0.14486   0.15487   0.17958   0.27586
 Alpha virt. eigenvalues --    0.36863   0.66704   0.71150   0.73087   0.80091
 Alpha virt. eigenvalues --    0.83308   0.87322   1.01146   1.05915   1.09034

 Mulliken charges:
               1
     1  C   -0.373331
     2  C   -0.373331
     3  H    0.186666
     4  H    0.186665
     5  H    0.186665
     6  H    0.186666
 Sum of Mulliken charges =   0.00000

 Dipole moment (field-independent basis, Debye):
    X=              0.0000    Y=              0.0000    Z=              0.0000  Tot=              0.0000
 Quadrupole moment (field-independent basis, Debye-Ang):
   XX=            -11.9752   YY=            -12.1602   ZZ=            -15.2702
   XY=             -0.0011   XZ=             -0.0833   YZ=             -0.1437

  Exact polarizability:  29.348   0.128  19.097  -0.590  -0.597   6.262
 Approx polarizability:  45.482   0.290  23.367  -0.984  -0.758   7.144

                      1                      2                      3
                      A                      A                      A
 Frequencies --    875.7393               990.8461               999.3221
 Red. masses --      1.0440                 1.1607                 1.5211
 Frc consts  --      0.4717                 0.6714                 0.8950
 IR Inten    --      2.1533               111.0833                 0.0000

                      4                      5                      6
                      A                      A                      A
 Frequencies --   1080.8048              1286.2030              1428.3108
 Red. masses --      1.0078                 1.5320                 1.2760
 Frc consts  --      0.6936                 1.4932                 1.5337
 IR Inten    --      0.0029                 0.0000                 0.0000

                      7                      8                      9
                      A                      A                      A
 Frequencies --   1536.1397              1710.7340              3146.6732
 Red. masses --      1.1113                 2.8349                 1.0483
 Frc consts  --      1.5450                 4.8883                 6.1158
 IR Inten    --      7.9412                 0.0000                13.5908

                     10                     11                     12
                      A                      A                      A
 Frequencies --   3161.9819              3211.8976              3243.8337
 Red. masses --      1.0737                 1.1116                 1.1162
 Frc consts  --      6.3249                 6.7565                 6.9202
 IR Inten    --      0.0000                 0.0000                27.7739

 - Thermochemistry -
 -------------------
 Temperature   298.150 Kelvin.  Pressure   1.00000 Atm.
 Atom     1 has atomic number  6 and mass  12.00000

 Molecular mass:    28.03130 amu.
 Principal axes and moments of inertia in atomic units:
                           1         2         3
     Eigenvalues --    12.23215  59.95377  72.18591
           X            0.99957  -0.01514   0.02523
           Y            0.01397   0.99884   0.04603
           Z           -0.02590  -0.04565   0.99862
 This molecule is an asymmetric top.
 Rotational symmetry number  2.
 Rotational temperatures (Kelvin)      7.08083     1.44468     1.19987
 Rotational constants (GHZ):         147.54084    30.10222    25.00129
 Zero-point vibrational energy     135611.6 (Joules/Mol)
                                   32.41195 (Kcal/Mol)
 Vibrational temperatures:   1259.99  1425.60  1437.80  1555.04  1850.56
          (Kelvin)           2055.02  2210.16  2461.36  4527.36  4549.38
                             4621.20  4667.15

 Zero-point correction=                           0.051652 (Hartree/Particle)
 Thermal correction to Energy=                    0.054670
 Thermal correction to Enthalpy=                  0.055614
 Thermal correction to Gibbs Free Energy=         0.030132
 Sum of electronic and zero-point Energies=            -78.109397
 Sum of electronic and thermal Energies=               -78.106379
 Sum of electronic and thermal Enthalpies=             -78.105434
 Sum of electronic and thermal Free Energies=          -78.130917

                     E (Thermal)             CV                S
                      KCal/Mol        Cal/Mol-Kelvin    Cal/Mol-Kelvin
 Total                   34.306              7.910             53.632
 Electronic               0.000              0.000              0.000
 Translational            0.889              2.981             35.927
 Rotational               0.889              2.981             17.233
 Vibrational             32.529              1.949              0.472

 Optimization completed.
    -- Stationary point found.
 Normal termination of Gaussian 09 at Fri Oct 13 14:41:20 2017.
