 Gaussian 09, Revision D.01,
 Gaussian 09:  AM64L-G09RevD.01 24-Apr-2013

 ------------------------
 # B3lyp/3-21g nosym freq
 ------------------------

 99//99;

 Symbolic Z-matrix:
 Charge =  0 Multiplicity = 1

                          Input orientation:
 ---------------------------------------------------------------------
 Center     Atomic      Atomic             Coordinates (Angstroms)
 Number     Number       Type             X           Y           Z
 ---------------------------------------------------------------------
      1          6           0       -0.664324    0.010565    0.020066
      2          6           0        0.664324   -0.010551   -0.020065
      3          1           0       -1.219164    0.930635    0.177157
      4          1           0       -1.256551   -0.891290   -0.102352
      5          1           0        1.256586    0.891283    0.102349
      6          1           0        1.219129   -0.930641   -0.177158
 ---------------------------------------------------------------------

 SCF Done:  E(RB3LYP) =  -78.1610474742     A.U. after   10 cycles

 Alpha  occ. eigenvalues --  -10.11959 -10.11859  -0.75990  -0.57698  -0.46969
 Alpha  occ. eigenvalues --   -0.42342  -0.35251  -0.27064
 Alpha virt. eigenvalues --    0.02226   0.14485   0.15487   0.17958   0.27586
 Alpha virt. eigenvalues --    0.36862   0.66703   0.71152   0.73087   0.80091
 Alpha virt. eigenvalues --    0.83308   0.87320   1.01147   1.05916   1.09034

 Mulliken charges:
               1
     1  C   -0.373332
     2  C   -0.373332
     3  H    0.186665
     4  H    0.186666
     5  H    0.186666
     6  H    0.186666
 Sum of Mulliken charges =   0.00000

 Dipole moment (field-independent basis, Debye):
    X=              0.0000    Y=              0.0000    Z=              0.0000  Tot=              0.0000
 Quadrupole moment (field-independent basis, Debye-Ang):
   XX=            -11.9760   YY=            -12.2256   ZZ=            -15.2041
   XY=              0.0102   XZ=             -0.0902   YZ=              0.4699

  Exact polarizability:  29.343  -0.109  18.827  -0.659   1.944   6.537
 Approx polarizability:  45.472  -0.283  23.026  -1.109   2.463   7.494

                      1                      2                      3
                      A                      A                      A
 Frequencies --    874.8361               989.4611               997.7697
 Red. masses --      1.0440                 1.1607                 1.5211
 Frc consts  --      0.4707                 0.6695                 0.8922
 IR Inten    --      2.1474               111.0881                 0.0000

                      4                      5                      6
                      A                      A                      A
 Frequencies --   1079.8053              1285.7074              1428.0276
 Red. masses --      1.0078                 1.5319                 1.2747
 Frc consts  --      0.6924                 1.4920                 1.5316
 IR Inten    --      0.0013                 0.0000                 0.0000

                      7                      8                      9
                      A                      A                      A
 Frequencies --   1535.3801              1710.3441              3146.6398
 Red. masses --      1.1113                 2.8414                 1.0483
 Frc consts  --      1.5435                 4.8972                 6.1156
 IR Inten    --      7.9447                 0.0000                13.5875

                     10                     11                     12
                      A                      A                      A
 Frequencies --   3161.9436              3211.8765              3243.8202
 Red. masses --      1.0737                 1.1116                 1.1162
 Frc consts  --      6.3246                 6.7565                 6.9202
 IR Inten    --      0.0000                 0.0000                27.7723

 - Thermochemistry -
 -------------------
 Temperature   298.150 Kelvin.  Pressure   1.00000 Atm.
 Atom     1 has atomic number  6 and mass  12.00000

 Molecular mass:    28.03130 amu.
 Principal axes and moments of inertia in atomic units:
                           1         2         3
     Eigenvalues --    12.23279  59.95279  72.18558
           X            0.99942   0.02028   0.02743
           Y           -0.01588   0.98823  -0.15213
           Z           -0.03019   0.15161   0.98798
 This molecule is an asymmetric top.
 Rotational symmetry number  1.
 Rotational temperatures (Kelvin)      7.08046     1.44470     1.19988
 Rotational constants (GHZ):         147.53307    30.10271    25.00141
 Zero-point vibrational energy     135570.5 (Joules/Mol)
                                   32.40212 (Kcal/Mol)
 Vibrational temperatures:   1258.69  1423.61  1435.57  1553.60  1849.84
          (Kelvin)           2054.61  2209.07  2460.80  4527.31  4549.33
                             4621.17  4667.13

 Zero-point correction=                           0.051636 (Hartree/Particle)
 Thermal correction to Energy=                    0.054655
 Thermal correction to Enthalpy=                  0.055599
 Thermal correction to Gibbs Free Energy=         0.029462
 Sum of electronic and zero-point Energies=            -78.109411
 Sum of electronic and thermal Energies=               -78.106392
 Sum of electronic and thermal Enthalpies=             -78.105448
 Sum of electronic and thermal Free Energies=          -78.131586

                     E (Thermal)             CV                S
                      KCal/Mol        Cal/Mol-Kelvin    Cal/Mol-Kelvin
 Total                   34.297              7.916             55.011
 Electronic               0.000              0.000              0.000
 Translational            0.889              2.981             35.927
 Rotational               0.889              2.981             18.610
 Vibrational             32.519              1.955              0.474

 Optimization completed.
    -- Stationary point found.
 Normal termination of Gaussian 09 at Fri Oct 13 15:18:24 2017.
