 Gaussian 09, Revision D.01,
 Gaussian 09:  AM64L-G09RevD.01 24-Apr-2013

 ------------------------
 # B3lyp/3-21g nosym freq
 ------------------------

 99//99;

 Symbolic Z-matrix:
 Charge =  0 Multiplicity = 1

                          Input orientation:
 ---------------------------------------------------------------------
 Center     Atomic      Atomic             Coordinates (Angstroms)
 Number     Number       Type             X           Y           Z
 ---------------------------------------------------------------------
      1          6           0       -0.711376    0.003476   -0.253757
      2          6           0        1.348049    0.002620   -0.347952
      3          1           0       -1.180718    0.918509    0.124899
      4          1           0       -1.169935   -0.906857    0.150678
      5          1           0        0.842320    0.854287    0.175961
      6          1           0        0.871660   -0.872035    0.150170
 ---------------------------------------------------------------------

 SCF Done:  E(RB3LYP) =  -77.9053059126     A.U. after   13 cycles

 Alpha  occ. eigenvalues --  -10.19996 -10.17789  -0.73194  -0.62872  -0.46607
 Alpha  occ. eigenvalues --   -0.37781  -0.28467  -0.25184
 Alpha virt. eigenvalues --   -0.11631  -0.01087   0.10557   0.17010   0.18341
 Alpha virt. eigenvalues --    0.18716   0.69279   0.71125   0.71365   0.77392
 Alpha virt. eigenvalues --    0.78661   0.84295   0.95183   0.95996   1.06548

 Mulliken charges:
               1
     1  C   -0.474430
     2  C   -0.349212
     3  H    0.208655
     4  H    0.208054
     5  H    0.203506
     6  H    0.203426
 Sum of Mulliken charges =   0.00000

 Dipole moment (field-independent basis, Debye):
    X=             -2.0367    Y=             -0.0386    Z=              1.8977  Tot=              2.7841
 Quadrupole moment (field-independent basis, Debye-Ang):
   XX=            -16.2929   YY=            -13.2407   ZZ=            -16.3232
   XY=             -0.1079   XZ=              1.1902   YZ=              0.0274

  Exact polarizability:  45.508  -0.042  22.087  -3.681  -0.013  12.815
 Approx polarizability: 159.000   0.178  29.499 -11.699   0.020  16.958

 ******    2 imaginary frequencies (negative Signs) ******

                      1                      2                      3
                      A                      A                      A
 Frequencies --   -602.2506              -536.7790               659.7016
 Red. masses --      2.6358                 1.0908                 1.2897
 Frc consts  --      0.5633                 0.1852                 0.3307
 IR Inten    --     19.0054                36.1452                31.0653

                      4                      5                      6
                      A                      A                      A
 Frequencies --    699.8300               904.5014              1014.9695
 Red. masses --      1.1795                 1.0082                 1.2529
 Frc consts  --      0.3403                 0.4860                 0.7604
 IR Inten    --      8.7461                 3.9568                27.8287

                      7                      8                      9
                      A                      A                      A
 Frequencies --   1227.8460              1415.8487              2892.8171
 Red. masses --      1.1026                 1.1006                 1.0517
 Frc consts  --      0.9794                 1.2999                 5.1853
 IR Inten    --     86.4667                29.4791                11.5940

                     10                     11                     12
                      A                      A                      A
 Frequencies --   2963.0811              3037.1645              3164.4383
 Red. masses --      1.0824                 1.0449                 1.1172
 Frc consts  --      5.5991                 5.6788                 6.5912
 IR Inten    --     30.9890                 9.8208                16.3069

 - Thermochemistry -
 -------------------
 Temperature   298.150 Kelvin.  Pressure   1.00000 Atm.
 Atom     1 has atomic number  6 and mass  12.00000

 Molecular mass:    28.03130 amu.
 Principal axes and moments of inertia in atomic units:
                           1         2         3
     Eigenvalues --    13.65069 111.25684 120.32497
           X            0.99806   0.00217   0.06227
           Y           -0.00249   0.99998   0.00494
           Z           -0.06226  -0.00508   0.99805
 This molecule is an asymmetric top.
 Rotational symmetry number  1.
 Rotational temperatures (Kelvin)      6.34501     0.77850     0.71983
 Rotational constants (GHZ):         132.20882    16.22140    14.99889
    2 imaginary frequencies ignored.
 Zero-point vibrational energy     107545.5 (Joules/Mol)
                                   25.70398 (Kcal/Mol)
 Vibrational temperatures:    949.16  1006.90  1301.37  1460.31  1766.59
          (Kelvin)           2037.09  4162.11  4263.21  4369.80  4552.92

 Zero-point correction=                           0.040962 (Hartree/Particle)
 Thermal correction to Energy=                    0.044147
 Thermal correction to Enthalpy=                  0.045091
 Thermal correction to Gibbs Free Energy=         0.018146
 Sum of electronic and zero-point Energies=            -77.864344
 Sum of electronic and thermal Energies=               -77.861159
 Sum of electronic and thermal Enthalpies=             -77.860215
 Sum of electronic and thermal Free Energies=          -77.887160

                     E (Thermal)             CV                S
                      KCal/Mol        Cal/Mol-Kelvin    Cal/Mol-Kelvin
 Total                   27.703              8.843             56.711
 Electronic               0.000              0.000              0.000
 Translational            0.889              2.981             35.927
 Rotational               0.889              2.981             19.841
 Vibrational             25.925              2.881              0.943

 Normal termination of Gaussian 09 at Wed Oct 11 07:01:35 2017.
